LAMMPS (23 Jun 2022 - Update 3)
OMP_NUM_THREADS environment is not set. Defaulting to 1 thread. (src/comm.cpp:98)
  using 1 OpenMP thread(s) per MPI task
# LJ fluid simulation - NPT ensemble
units lj
atom_style atomic
dimension 3
boundary p p p

# Create FCC lattice (864 atoms)
lattice fcc 0.8442
Lattice spacing in x,y,z = 1.6795962 1.6795962 1.6795962
region box block 0 6 0 6 0 6
create_box 1 box
Created orthogonal box = (0 0 0) to (10.077577 10.077577 10.077577)
  1 by 1 by 1 MPI processor grid
create_atoms 1 box
Created 864 atoms
  using lattice units in orthogonal box = (0 0 0) to (10.077577 10.077577 10.077577)
  create_atoms CPU = 0.000 seconds
mass 1 1.0

# LJ potential
pair_style lj/cut 2.5
pair_coeff 1 1 1.0 1.0

# Neighbor list
neighbor 0.3 bin
neigh_modify every 1 delay 0 check yes

# Increase ghost atom communication for RDF
comm_modify cutoff 6.0

# Initial velocities (T* = 2.0)
velocity all create 2.0 482901 dist gaussian

# Thermodynamic output
thermo_style custom step temp pe ke etotal press vol density
thermo 100

# Trajectory output
dump 1 all custom 50 trajectory.lammpstrj id type x y z
dump_modify 1 sort id

# RDF calculation
compute rdf all rdf 100 1 1 cutoff 5.0
fix 3 all ave/time 100 10 1000 c_rdf[*] file rdf.dat mode vector

# MSD calculation
compute msd all msd
fix 4 all ave/time 1 1 1 c_msd[4] file msd.dat

# NPT equilibration (cool from T* = 2.0 to T* = 1.0)
fix 1 all npt temp 2.0 1.0 0.1 iso 1.0 1.0 1.0
timestep 0.005
run 5000
Generated 0 of 0 mixed pair_coeff terms from geometric mixing rule
Neighbor list info ...
  update every 1 steps, delay 0 steps, check yes
  max neighbors/atom: 2000, page size: 100000
  master list distance cutoff = 2.8
  ghost atom cutoff = 6
  binsize = 1.4, bins = 8 8 8
  2 neighbor lists, perpetual/occasional/extra = 1 1 0
  (1) pair lj/cut, perpetual
      attributes: half, newton on
      pair build: half/bin/atomonly/newton
      stencil: half/bin/3d
      bin: standard
  (2) compute rdf, occasional
      attributes: half, newton on, cut 5.3
      pair build: half/bin/atomonly/newton
      stencil: half/bin/3d
      bin: standard
Per MPI rank memory allocation (min/avg/max) = 5.978 | 5.978 | 5.978 Mbytes
   Step          Temp          PotEng         KinEng         TotEng         Press          Volume        Density    
         0   2             -6.7733681      2.9965278     -3.7768403     -4.5488714      1023.4542      0.8442       
       100   1.6685288     -4.5260373      2.4998965     -2.0261409      2.7214711      1150.5513      0.75094435   
       200   1.9759297     -3.592341       2.9604642     -0.63187683     2.0777529      1396.643       0.61862621   
       300   1.9434925     -3.1850357      2.9118646     -0.27317106     1.4786242      1579.9545      0.54685119   
       400   1.9261447     -2.9605817      2.885873      -0.074708659    1.179624       1711.0696      0.50494732   
       500   1.8699485     -2.8009502      2.8016763      0.00072615209  1.1152829      1811.9658      0.4768302    
       600   1.8309816     -2.7111348      2.7432936      0.032158725    0.94385645     1860.048       0.46450415   
       700   1.780788      -2.7348496      2.6680904     -0.066759276    1.0521467      1828.8247      0.47243456   
       800   1.8451788     -2.798188       2.7645648     -0.033623245    0.99355994     1815.9709      0.47577854   
       900   1.8527201     -2.7726162      2.7758637      0.003247432    1.0199571      1822.7789      0.47400153   
      1000   1.8087958     -2.7567441      2.7100534     -0.046690688    1.1938979      1811.7352      0.47689088   
      1100   1.8336628     -2.8796872      2.7473107     -0.1323765      0.86263811     1794.1368      0.48156862   
      1200   1.681513      -2.9626868      2.5193503     -0.4433365      0.97644293     1709.8489      0.50530782   
      1300   1.7321902     -3.0094161      2.595278      -0.41413801     1.0689857      1700.292       0.50814801   
      1400   1.6338519     -2.9175546      2.4479414     -0.46961322     0.88662954     1734.2119      0.49820901   
      1500   1.687705      -2.978403       2.5286275     -0.44977553     0.8785657      1724.1678      0.50111131   
      1600   1.6522388     -2.9283201      2.4754898     -0.45283032     0.77952653     1747.6765      0.49437068   
      1700   1.6477867     -3.0371062      2.4688194     -0.56828689     0.79841962     1705.3995      0.50662617   
      1800   1.594411      -3.1223689      2.3888485     -0.73352042     0.97368887     1660.0545      0.52046485   
      1900   1.622269      -3.1714538      2.4305871     -0.74086666     1.0390614      1636.6074      0.52792134   
      2000   1.6730988     -3.2067784      2.5067435     -0.70003492     1.0617308      1616.5994      0.53445523   
      2100   1.5993956     -3.2206525      2.3963166     -0.8243359      0.84157052     1637.5653      0.52761255   
      2200   1.5010096     -3.1977688      2.2489085     -0.94886032     1.0189569      1604.3808      0.53852551   
      2300   1.5103428     -3.3803879      2.2628921     -1.1174959      1.3019082      1515.3199      0.57017664   
      2400   1.5474969     -3.4634981      2.3185588     -1.1449393      0.92141239     1517.8182      0.56923814   
      2500   1.516847      -3.5170558      2.2726371     -1.2444186      0.99314937     1502.1825      0.57516314   
      2600   1.4752081     -3.4678635      2.2102511     -1.2576124      1.0711724      1500.9277      0.57564399   
      2700   1.5087898     -3.6156437      2.2605653     -1.3550784      1.0301561      1464.7998      0.5898417    
      2800   1.4275351     -3.641818       2.1388243     -1.5029937      1.1935492      1440.4555      0.59981027   
      2900   1.4123        -3.610526       2.1159982     -1.4945278      0.98280137     1471.2159      0.58726935   
      3000   1.4960427     -3.5968442      2.2414667     -1.3553775      1.0087434      1474.9599      0.58577863   
      3100   1.3822333     -3.59199        2.0709502     -1.5210397      0.87544067     1482.7868      0.5826866    
      3200   1.3918093     -3.6594681      2.0852976     -1.5741705      0.93938147     1451.6134      0.5951998    
      3300   1.3697532     -3.8941251      2.0522518     -1.8418733      0.83276595     1381.5695      0.62537572   
      3400   1.2731668     -3.9911262      1.9075399     -2.0835863      0.77976421     1357.4681      0.63647903   
      3500   1.2537164     -3.9392871      1.878398      -2.0608891      1.0056         1351.3775      0.63934761   
      3600   1.2978809     -4.065339       1.9445681     -2.1207709      0.82287232     1333.2034      0.64806316   
      3700   1.2144572     -4.1228074      1.8195773     -2.3032301      0.89632964     1311.8471      0.65861333   
      3800   1.2420364     -4.1317941      1.8608983     -2.2708958      0.89107983     1314.1191      0.65747466   
      3900   1.1769836     -4.1272338      1.7634321     -2.3638017      0.95243717     1314.6796      0.65719437   
      4000   1.1866863     -4.1949902      1.7779693     -2.4170209      1.069195       1287.4671      0.67108509   
      4100   1.1517216     -4.3000975      1.7255829     -2.5745146      1.3270482      1245.4849      0.6937057    
      4200   1.1981491     -4.3993956      1.7951435     -2.6042521      1.0805296      1235.9345      0.69906618   
      4300   1.1078408     -4.4282503      1.6598378     -2.7684125      0.88846476     1240.8216      0.69631285   
      4400   1.0954539     -4.4745743      1.6412791     -2.8332952      1.137882       1218.7061      0.70894859   
      4500   1.0766902     -4.4977201      1.6131661     -2.884554       1.0351907      1215.6315      0.71074168   
      4600   1.1244697     -4.5992952      1.6847523     -2.9145429      0.71355711     1214.3696      0.71148029   
      4700   1.0036062     -4.6785823      1.503667      -3.1749153      1.151708       1177.941       0.73348324   
      4800   1.0240264     -4.6869569      1.5342618     -3.1526951      0.87285105     1186.7919      0.72801306   
      4900   0.99961353    -4.7413742      1.4976849     -3.2436893      0.57807999     1188.3738      0.72704397   
      5000   1.0023708     -4.8650617      1.501816      -3.3632457      0.83829745     1148.5091      0.75227961   
Loop time of 3.18403 on 1 procs for 5000 steps with 864 atoms

Performance: 678386.513 tau/day, 1570.339 timesteps/s
96.9% CPU use with 1 MPI tasks x 1 OpenMP threads

MPI task timing breakdown:
Section |  min time  |  avg time  |  max time  |%varavg| %total
---------------------------------------------------------------
Pair    | 1.3829     | 1.3829     | 1.3829     |   0.0 | 43.43
Neigh   | 0.85672    | 0.85672    | 0.85672    |   0.0 | 26.91
Comm    | 0.17524    | 0.17524    | 0.17524    |   0.0 |  5.50
Output  | 0.097291   | 0.097291   | 0.097291   |   0.0 |  3.06
Modify  | 0.62579    | 0.62579    | 0.62579    |   0.0 | 19.65
Other   |            | 0.04612    |            |       |  1.45

Nlocal:            864 ave         864 max         864 min
Histogram: 1 0 0 0 0 0 0 0 0 0
Nghost:           7732 ave        7732 max        7732 min
Histogram: 1 0 0 0 0 0 0 0 0 0
Neighs:          29132 ave       29132 max       29132 min
Histogram: 1 0 0 0 0 0 0 0 0 0

Total # of neighbors = 29132
Ave neighs/atom = 33.717593
Neighbor list builds = 806
Dangerous builds = 0

# NPT production (T* = 1.0, P* = 1.0)
unfix 1
fix 2 all npt temp 1.0 1.0 0.1 iso 1.0 1.0 1.0
run 10000
Generated 0 of 0 mixed pair_coeff terms from geometric mixing rule
Per MPI rank memory allocation (min/avg/max) = 6.749 | 6.749 | 6.749 Mbytes
   Step          Temp          PotEng         KinEng         TotEng         Press          Volume        Density    
      5000   1.0023708     -4.8650617      1.501816      -3.3632457      0.83829745     1148.5091      0.75227961   
      5100   0.94633103    -4.7967223      1.4178536     -3.3788687      0.88523116     1156.1961      0.74727809   
      5200   0.96748814    -4.7848887      1.4495525     -3.3353362      0.90272746     1163.3558      0.7426791    
      5300   0.93717722    -4.7381685      1.4041388     -3.3340297      0.85773283     1169.7142      0.73864195   
      5400   0.98041756    -4.7175087      1.4689242     -3.2485845      0.79760046     1180.8663      0.73166621   
      5500   1.0052997     -4.8322091      1.5062043     -3.3260048      1.17382        1145.9855      0.75393622   
      5600   1.027365      -4.8004473      1.5392638     -3.2611834      1.1395253      1148.9748      0.75197472   
      5700   1.0241223     -4.8118298      1.5344055     -3.2774243      0.95985548     1154.5242      0.74836021   
      5800   1.0377966     -4.8059659      1.5548932     -3.2510726      1.1801802      1149.7981      0.75143625   
      5900   1.0290274     -4.7671444      1.5417546     -3.2253898      1.062598       1161.6703      0.74375662   
      6000   1.0244876     -4.7781276      1.5349528     -3.2431748      1.0362564      1161.0806      0.74413438   
      6100   0.94588589    -4.8331306      1.4171867     -3.4159439      1.0410172      1146.9381      0.75331007   
      6200   0.97050256    -4.8685382      1.4540689     -3.4144693      0.98627604     1143.5023      0.75557349   
      6300   0.95416132    -4.7550364      1.4295854     -3.325451       1.1635186      1156.7494      0.74692062   
      6400   1.0130257     -4.8619936      1.5177798     -3.3442138      0.98294525     1143.9988      0.75524553   
      6500   0.98978532    -4.7346911      1.4829596     -3.2517315      1.1744892      1162.3982      0.74329087   
      6600   1.0097117     -4.8044967      1.5128146     -3.2916821      1.2546291      1143.9232      0.75529544   
      6700   1.0089384     -4.839271       1.5116559     -3.3276151      0.9241442      1151.7663      0.7501522    
      6800   0.98566652    -4.8421722      1.4767886     -3.3653837      1.0109063      1148.2291      0.75246308   
      6900   0.98544196    -4.8198825      1.4764521     -3.3434304      0.8529398      1157.0257      0.74674224   
      7000   1.0090308     -4.8495378      1.5117944     -3.3377434      0.95906878     1152.747       0.74951398   
      7100   1.0276794     -4.6687857      1.539735      -3.1290507      1.1530539      1177.3766      0.73383488   
      7200   0.98463754    -4.7745668      1.4752469     -3.2993199      1.1903376      1150.5586      0.75093956   
      7300   0.95288776    -4.9004544      1.4276773     -3.4727771      0.9935933      1138.6897      0.75876684   
      7400   0.98159833    -4.8267257      1.4706933     -3.3560324      1.053236       1149.2743      0.75177879   
      7500   1.0425547     -4.7961249      1.562022      -3.2341028      1.066597       1156.6573      0.7469801    
      7600   1.0548557     -4.8620831      1.5804523     -3.2816308      1.1927097      1143.6916      0.7554484    
      7700   1.0011888     -4.7875804      1.500045      -3.2875354      1.1993017      1151.6797      0.75020861   
      7800   0.96004634    -4.8321368      1.4384028     -3.393734       1.1010897      1147.9999      0.75261332   
      7900   0.9494498     -4.8108321      1.4225263     -3.3883057      1.0519063      1155.1858      0.74793162   
      8000   0.98446092    -4.7689419      1.4749823     -3.2939596      0.78731198     1168.4395      0.7394478    
      8100   0.99339525    -4.8405252      1.4883682     -3.352157       1.0213865      1145.0747      0.75453595   
      8200   1.0167329     -4.8536737      1.5233342     -3.3303394      1.1671808      1140.3552      0.75765869   
      8300   0.96415076    -4.7926595      1.4445523     -3.3481072      1.0395385      1153.2844      0.74916474   
      8400   0.9660572     -4.83578        1.4474086     -3.3883714      0.94156512     1152.5086      0.74966902   
      8500   0.94624091    -4.8473197      1.4177186     -3.4296012      0.94383529     1148.7927      0.75209389   
      8600   0.97129403    -4.8044189      1.4552548     -3.3491641      0.59958707     1169.3978      0.73884184   
      8700   1.0047836     -4.8861799      1.5054309     -3.3807489      0.83597053     1147.9722      0.75263144   
      8800   0.9646187     -4.8287111      1.4452534     -3.3834577      0.8899113      1158.2966      0.74592295   
      8900   0.9749966     -4.6913055      1.4608022     -3.2305033      1.2867054      1163.8666      0.74235311   
      9000   1.0079802     -4.9579371      1.5102203     -3.4477167      0.7732505      1140.2514      0.75772764   
      9100   0.95396907    -4.8402097      1.4292974     -3.4109123      1.0712435      1141.5755      0.75684874   
      9200   0.97573851    -4.8076634      1.4619138     -3.3457497      0.91034013     1154.0058      0.7486964    
      9300   1.0167677     -4.8086254      1.5233864     -3.2852391      0.85483852     1159.9078      0.74488677   
      9400   1.0201294     -4.8246757      1.5284231     -3.2962526      1.1154488      1144.9627      0.75460975   
      9500   1.0193215     -4.8121443      1.5272126     -3.2849317      0.92227502     1157.6428      0.74634421   
      9600   1.0057907     -4.770807       1.5069399     -3.2638671      0.77746088     1170.3977      0.73821058   
      9700   0.96678851    -4.8364139      1.4485043     -3.3879096      0.75247566     1160.1161      0.74475305   
      9800   0.95701156    -4.7980568      1.4338559     -3.364201       0.89256609     1156.8053      0.74688454   
      9900   0.9843175     -4.7994759      1.4747674     -3.3247086      0.82458579     1164.4265      0.74199618   
     10000   1.0021714     -4.7128026      1.5015172     -3.2112854      0.92348656     1177.1558      0.73397251   
     10100   0.96485975    -4.890984       1.4456145     -3.4453695      0.86130747     1145.9975      0.75392832   
     10200   0.97608298    -4.8068884      1.4624299     -3.3444585      0.97080639     1156.1574      0.74730312   
     10300   1.0454357     -4.9208223      1.5663385     -3.3544837      0.86605492     1141.0191      0.7572178    
     10400   1.0090286     -4.9798511      1.5117912     -3.46806        1.2642761      1119.2406      0.771952     
     10500   1.0145447     -4.7765945      1.5200556     -3.2565389      0.92444162     1167.3995      0.74010655   
     10600   1.0085214     -4.8238986      1.5110312     -3.3128675      0.99906362     1153.8304      0.74881024   
     10700   0.95459922    -4.8152392      1.4302415     -3.3849977      0.90771086     1153.3937      0.74909376   
     10800   0.96014832    -4.8954836      1.4385556     -3.456928       0.71997285     1146.7945      0.75340436   
     10900   0.94903353    -4.8424728      1.4219027     -3.4205702      1.057318       1144.0478      0.7552132    
     11000   1.0139274     -4.8010833      1.5191308     -3.2819525      0.86937664     1160.0579      0.74479041   
     11100   0.98984145    -4.8390651      1.4830437     -3.3560214      1.0156092      1148.057       0.75257586   
     11200   1.017569      -4.9128621      1.5245869     -3.3882752      1.0043011      1137.5375      0.75953541   
     11300   1.0233583     -4.9288781      1.5332608     -3.3956173      1.2875402      1124.4342      0.76838645   
     11400   1.0045359     -4.7893828      1.5050598     -3.284323       0.94807405     1154.3038      0.7485031    
     11500   1.0249065     -4.904375       1.5355804     -3.3687945      1.3172167      1123.6923      0.76889379   
     11600   1.0206082     -4.9002204      1.5291404     -3.37108        0.95429122     1137.3573      0.75965571   
     11700   0.97673149    -4.7714275      1.4634015     -3.308026       0.93684579     1163.8967      0.7423339    
     11800   1.0354589     -4.8843386      1.5513907     -3.3329479      0.95805846     1146.4742      0.75361489   
     11900   1.0106209     -4.8025027      1.5141768     -3.2883259      1.2158594      1148.1898      0.7524888    
     12000   1.0303194     -4.7714053      1.5436904     -3.227715       0.76015193     1167.349       0.74013856   
     12100   0.95115019    -4.7884848      1.425074      -3.3634108      0.89888692     1157.5017      0.7464352    
     12200   0.9694445     -4.8377127      1.4524837     -3.385229       0.85113785     1153.1631      0.74924352   
     12300   1.0001522     -4.8954528      1.4984919     -3.3969608      0.92056946     1144.717       0.7547717    
     12400   1.0240678     -4.797293       1.5343239     -3.2629691      0.86783921     1164.7938      0.74176221   
     12500   1.014846      -4.7631938      1.5205071     -3.2426867      0.95058576     1163.916       0.74232159   
     12600   0.97940592    -4.9019181      1.4674085     -3.4345096      1.0303412      1136.8747      0.7599782    
     12700   1.0259749     -4.8367288      1.5371812     -3.2995476      0.84643447     1156.722       0.74693831   
     12800   0.96267056    -4.7587658      1.4423345     -3.3164312      1.1877689      1153.2564      0.74918295   
     12900   1.0017        -4.8237216      1.5008109     -3.3229107      1.2875223      1140.3431      0.75766673   
     13000   1.0081433     -4.8331968      1.5104648     -3.322732       0.81428567     1158.121       0.74603605   
     13100   0.97724201    -4.7858094      1.4641664     -3.321643       0.67972364     1171.2696      0.73766107   
     13200   0.99918037    -4.8451403      1.4970359     -3.3481044      0.57729391     1165.1315      0.74154717   
     13300   0.99713615    -4.8362835      1.4939731     -3.3423104      0.61090987     1167.1095      0.74029046   
     13400   1.032204      -4.7697051      1.546514      -3.2231911      0.66367973     1175.436       0.73504637   
     13500   0.99529149    -4.8072641      1.4912093     -3.3160548      1.1138654      1151.3927      0.75039559   
     13600   1.0249093     -4.8947879      1.5355846     -3.3592032      1.1524774      1135.4451      0.76093504   
     13700   1.0036195     -4.6918664      1.5036868     -3.1881796      0.80389405     1189.7826      0.72618307   
     13800   1.0002517     -4.7393745      1.498641      -3.2407335      0.93505132     1170.6866      0.73802844   
     13900   0.97888255    -4.8285981      1.4666244     -3.3619738      1.2441958      1142.6025      0.75616848   
     14000   1.0012514     -4.8575164      1.5001388     -3.3573776      0.84135965     1154.9496      0.7480846    
     14100   1.0437177     -4.8597126      1.5637645     -3.2959481      0.75648713     1154.4449      0.74841165   
     14200   0.98796516    -4.8374836      1.4802325     -3.3572511      1.0198262      1145.3183      0.75437543   
     14300   1.0168475     -4.8941682      1.5235059     -3.3706623      0.77777147     1148.2937      0.75242076   
     14400   0.96830243    -4.8198325      1.4507726     -3.36906        0.77344403     1161.5379      0.74384145   
     14500   1.0264668     -4.8830112      1.5379182     -3.345093       0.6236223      1156.9031      0.74682138   
     14600   0.96772637    -4.9304479      1.4499095     -3.4805385      0.86707987     1133.7444      0.76207654   
     14700   1.059603      -4.8439123      1.5875649     -3.2563473      0.89099624     1154.5986      0.74831198   
     14800   1.0532685     -4.7645569      1.5780742     -3.1864828      1.3652716      1153.7635      0.74885367   
     14900   1.0023827     -4.7805499      1.5018337     -3.2787162      1.2699569      1150.7283      0.75082885   
     15000   0.98653509    -4.844084       1.4780899     -3.3659941      0.99382988     1146.2504      0.75376197   
Loop time of 7.28932 on 1 procs for 10000 steps with 864 atoms

Performance: 592647.476 tau/day, 1371.869 timesteps/s
97.6% CPU use with 1 MPI tasks x 1 OpenMP threads

MPI task timing breakdown:
Section |  min time  |  avg time  |  max time  |%varavg| %total
---------------------------------------------------------------
Pair    | 3.361      | 3.361      | 3.361      |   0.0 | 46.11
Neigh   | 1.6218     | 1.6218     | 1.6218     |   0.0 | 22.25
Comm    | 0.36325    | 0.36325    | 0.36325    |   0.0 |  4.98
Output  | 0.19392    | 0.19392    | 0.19392    |   0.0 |  2.66
Modify  | 1.6524     | 1.6524     | 1.6524     |   0.0 | 22.67
Other   |            | 0.09697    |            |       |  1.33

Nlocal:            864 ave         864 max         864 min
Histogram: 1 0 0 0 0 0 0 0 0 0
Nghost:           7705 ave        7705 max        7705 min
Histogram: 1 0 0 0 0 0 0 0 0 0
Neighs:          29115 ave       29115 max       29115 min
Histogram: 1 0 0 0 0 0 0 0 0 0

Total # of neighbors = 29115
Ave neighs/atom = 33.697917
Neighbor list builds = 1318
Dangerous builds = 0

write_data lj_final.data
System init for write_data ...
Generated 0 of 0 mixed pair_coeff terms from geometric mixing rule
Total wall time: 0:00:10
